
#(C) 2021 by FIZ Karlsruhe - Leibniz Institute for Information Infrastructure.  All rights reserved.
data_9165-ICSD
_database_code_ICSD 9165
_audit_creation_date 1980-01-01
_audit_update_record 2012-08-01
_chemical_name_common 'Manganese fluoride'
_chemical_formula_structural 'Mn F2'
_chemical_formula_sum 'F2 Mn1'
_chemical_name_structure_type Rutile#TiO2
_exptl_crystal_density_diffrn 3.92
_citation_title

;
Rutile-Type Compounds. VI. Si O2, Ge O2 and a Comparison with other
Rutile-Type Structures
;
loop_
_citation_id
_citation_journal_full
_citation_year
_citation_journal_volume
_citation_page_first
_citation_page_last
_citation_journal_id_ASTM
primary

;
Acta Crystallographica, Section B: Structural Crystallography and Crystal
Chemistry
; 1971 27 2133 2139 ACBCAR
loop_
_citation_author_citation_id
_citation_author_name
primary 'Baur, W.H.'
primary 'Khan, A.A.'
_cell_length_a 4.8738(1)
_cell_length_b 4.8738(1)
_cell_length_c 3.3107(1)
_cell_angle_alpha 90.
_cell_angle_beta 90.
_cell_angle_gamma 90.
_cell_volume 78.64
_cell_formula_units_Z 2
_space_group_name_H-M_alt 'P 42/m n m'
_space_group_IT_number 136
loop_
_space_group_symop_id
_space_group_symop_operation_xyz
1 '-y+1/2, x+1/2, -z+1/2'
2 'y+1/2, -x+1/2, -z+1/2'
3 'y, x, -z'
4 '-y, -x, -z'
5 'y+1/2, -x+1/2, z+1/2'
6 '-y+1/2, x+1/2, z+1/2'
7 '-y, -x, z'
8 'y, x, z'
9 'x+1/2, -y+1/2, -z+1/2'
10 '-x+1/2, y+1/2, -z+1/2'
11 'x, y, -z'
12 '-x, -y, -z'
13 '-x+1/2, y+1/2, z+1/2'
14 'x+1/2, -y+1/2, z+1/2'
15 '-x, -y, z'
16 'x, y, z'
loop_
_atom_type_symbol
_atom_type_oxidation_number
Mn2+ 2
F1- -1
loop_
_atom_site_label
_atom_site_type_symbol
_atom_site_symmetry_multiplicity
_atom_site_Wyckoff_symbol
_atom_site_fract_x
_atom_site_fract_y
_atom_site_fract_z
_atom_site_B_iso_or_equiv
_atom_site_occupancy
Mn1 Mn2+ 2 a 0 0 0 . 1.
F1 F1- 4 f 0.3053(12) 0.3053(12) 0 . 1.
loop_
_atom_site_aniso_label
_atom_site_aniso_type_symbol
_atom_site_aniso_beta_11
_atom_site_aniso_beta_22
_atom_site_aniso_beta_33
_atom_site_aniso_beta_12
_atom_site_aniso_beta_13
_atom_site_aniso_beta_23
Mn1 Mn2+ 0.0093(3) 0.0093(3) 0.0182 -.0006(4) 0 0
F1 F1- 0.0131(10) 0.0131(10) 0.025 -.0006(7) 0 0
#End of TTdata_9165-ICSD